 T
           1
           2
         200
   9.1416984872143559E-003   9.1416984872161322E-003   9.1416984872161322E-003   9.1439473135865867E-003  0.38218772613023244       0.38218772613023333       0.38218772613023511       0.54329626517039742       0.54329626517040008       0.54329626517147656       0.81417630817670883       0.85496881534809610       0.85496881534809699        1.0643324444426217        1.0643324444426252        1.1281918446316990        1.1281918446319050        1.1864355267302935        1.1864355267303006        1.3495888574455659        1.3495888633989219        1.5075140059934506        1.5082137000805869        1.5643410016880264        1.6253426206373716        1.6794676688526948        1.8289603934402647        1.9755745426021782        2.0320041498611721        2.0742242685292567        2.0915609526239400        2.1446377735650550        2.2086990806855846        2.2446370090589944        2.3201585174268455        2.3392351607975712        2.3836753275535081        2.4253618170509874        2.4749627486805368        2.4966021657643811        2.5283045794154724        2.6549649419060799        2.7045875403112012        2.7441223814152593        2.7708898458706575        2.8418772212377608        2.8824272429911861        2.9478849904484532        2.9929894983754268        3.1247691702429488        3.1795327844961694        3.2085527684232775        3.2591142239855686        3.3046373513058978        3.4060789772419340        3.4463085792606618        3.5489409814084532        3.6530255848144759        3.6910616210899279        3.7485598495755958        3.8246078074188432        3.9081305323697082        3.9871288138903309        4.0329950498530032        4.1363307054089082        4.2036477666627992        4.3181740895036169        4.4075201177533883        4.4754975764280482        4.5583694080556576        4.6133455545338071        4.7352131646000970        4.8038337039082020        4.9030227612406998        4.9783861151343221        5.0395102129559310        5.1520420285669184        5.2657985653902220        5.3554157788475694        5.4222822380277416        5.5253275855124508        5.5861794241446558        5.6688337948924969        5.7865520553985785        5.8864783731006014        5.9753788333701623        6.0592651627279004        6.1953491603946080        6.2809570561926105        6.3163674467398829        6.4475426670088760        6.5792033245134593        6.6367910485349038        6.7323444228906713        6.8297668945635310        6.9310386848789163        7.0417263405385366        7.1330365358446457        7.2292818557672076        7.3315482087589805        7.4266536166676849        7.5266982421689876        7.5983469662728123        7.7358541974671864        7.8321019697475789        7.8954609718012776        8.0461039482175387        8.1651126910242340        8.2351843947113643        8.3226491590177112        8.4253634170257108        8.5128342478613561        8.6355283085430372        8.7252193752950333        8.8366870661721642        8.9504717774678610        9.0405030124092818        9.1394773388196953        9.1922422634828429        9.3233211741317810        9.3889637233432772        9.5236066613025407        9.6241961178714703        9.7106760491842081        9.7590708379688103        9.9155236217172700        9.9876001963937178        10.098285567376898        10.199627419021869        10.278689557981622        10.360137503027406        10.496035825511481        10.563890300077972        10.673231605762588        10.766905556114096        10.818654414548607        10.967843119695882        11.058987638655534        11.095896045465725        11.168110161406219        11.283730382134859        11.359442808429744        11.449686626599203        11.536476918989305        11.603264877939406        11.679855313874075        11.763200752866844        11.817998447952974        11.947683159087479        12.042393068949458        12.085599605353533        12.197087733435399        12.271107716158454        12.310909024597734        12.348328022202040        12.400788541994451        12.503162496384441        12.578591216215667        12.627545021241239        12.697513827869070        12.786104461892389        12.849368305424809        12.861190786219144        12.922736636565901        13.055962078513545        13.058315020882141        13.147211066035567        13.167391349595242        13.202360170006163        13.343545820057610        13.351791640949848        13.408002491271652        13.433651235312507        13.442947705016124        13.466444211051442        13.493163323723920        13.620283622033007        13.673325779371098        13.700801809166851        13.783402569391352        13.942070095375033        14.028656561277103        14.134156257669559        14.188328124569555        14.188332124039816        14.417103756966389        14.417104585120242        14.436789252254627        14.463594290275147        14.463594300597215        14.538072376365458        14.538072376898015        14.765400099586628        14.765400099586632        15.249318133440870        15.249318133440873        15.249318133440882        15.528976921105327        15.528976921105341        15.528976921105349     
         (4.28525297774882247E-005,0.0000000000000000)         (1.96767046295452663E-003,0.0000000000000000)         (2.59310132469118201E-002,0.0000000000000000)               (0.0000000000000000,0.0000000000000000)         (1.76388645449496737E-003,0.0000000000000000)        (1.39220188269562523E-004,-0.0000000000000000)         (3.86480120601012561E-006,0.0000000000000000)        (6.26566195760225927E-003,-0.0000000000000000)              (0.27654649066474996,0.0000000000000000)         (3.29958483782426556E-014,0.0000000000000000)         (3.75962666859849201E-032,0.0000000000000000)         (2.69661510402352360E-003,0.0000000000000000)        (6.90334971496697807E-005,-0.0000000000000000)        (7.87966973692150749E-004,-0.0000000000000000)        (8.32782307296618313E-007,-0.0000000000000000)         (4.19062632721504697E-003,0.0000000000000000)         (1.08395450029897454E-008,0.0000000000000000)              (0.12633281181913047,0.0000000000000000)        (3.83910621305757777E-003,-0.0000000000000000)        (4.15352000063645449E-004,-0.0000000000000000)        (5.31776545144352456E-018,-0.0000000000000000)        (6.59029889423764885E-003,-0.0000000000000000)         (5.87903972215141066E-028,0.0000000000000000)         (3.21293355225903436E-003,0.0000000000000000)        (1.76569486408795981E-002,-0.0000000000000000)        (9.04730083077592921E-005,-0.0000000000000000)         (8.17979995804363376E-004,0.0000000000000000)         (5.03699287416436462E-006,0.0000000000000000)        (1.65917055953273689E-004,-0.0000000000000000)         (1.11670320825780593E-002,0.0000000000000000)        (2.40685797361592166E-002,-0.0000000000000000)        (1.16173312470927561E-005,-0.0000000000000000)        (1.08804572026403726E-004,-0.0000000000000000)         (6.30612108175295015E-005,0.0000000000000000)         (6.23513459015074151E-006,0.0000000000000000)         (2.14103961507171748E-003,0.0000000000000000)         (3.25369568137164750E-002,0.0000000000000000)        (5.02178651549545777E-005,-0.0000000000000000)         (2.26661658738926261E-003,0.0000000000000000)        (7.75688468953086765E-003,-0.0000000000000000)        (2.34806366653305450E-003,-0.0000000000000000)         (1.12794526801477649E-004,0.0000000000000000)         (4.24033876952574832E-004,0.0000000000000000)        (2.60016036500545014E-003,-0.0000000000000000)        (2.42339713929396773E-003,-0.0000000000000000)         (7.13941146659694643E-004,0.0000000000000000)        (3.40922292456672120E-004,-0.0000000000000000)        (1.43209780638226008E-004,-0.0000000000000000)         (3.06863740320496088E-004,0.0000000000000000)        (4.60014413091156590E-003,-0.0000000000000000)         (1.88320621444690002E-003,0.0000000000000000)         (4.90632555644827939E-003,0.0000000000000000)         (2.24120238982481006E-002,0.0000000000000000)         (9.76870307301692248E-004,0.0000000000000000)         (3.23774440510112308E-004,0.0000000000000000)        (3.43613420336966830E-004,-0.0000000000000000)        (7.58993160586477833E-004,-0.0000000000000000)         (6.42450029715767204E-004,0.0000000000000000)         (1.13573821623787143E-003,0.0000000000000000)         (1.04774594884682153E-002,0.0000000000000000)         (7.49126720030657327E-005,0.0000000000000000)        (1.19191567602613914E-003,-0.0000000000000000)        (1.91907435564803771E-003,-0.0000000000000000)        (1.37488653625117982E-003,-0.0000000000000000)         (2.37853562481533845E-004,0.0000000000000000)        (1.87237247016532212E-004,-0.0000000000000000)         (1.55660863579202327E-004,0.0000000000000000)         (1.14708881593052154E-004,0.0000000000000000)        (1.39714068463963026E-004,-0.0000000000000000)         (2.21002322339255118E-003,0.0000000000000000)        (4.00553985257353295E-004,-0.0000000000000000)         (4.48163421752899733E-005,0.0000000000000000)         (6.84066667191764855E-005,0.0000000000000000)         (2.53609210047881016E-004,0.0000000000000000)         (2.44242994659429023E-004,0.0000000000000000)         (2.52786719079565005E-004,0.0000000000000000)        (2.09647214505798337E-005,-0.0000000000000000)        (7.67140845442875434E-005,-0.0000000000000000)         (8.83105288482470004E-005,0.0000000000000000)         (8.55669239104518746E-005,0.0000000000000000)         (3.91986850573037334E-004,0.0000000000000000)         (1.30443137408917223E-004,0.0000000000000000)         (2.06386950941759377E-005,0.0000000000000000)        (8.82563414692389931E-006,-0.0000000000000000)        (3.62672178569894287E-006,-0.0000000000000000)        (1.44807516636793602E-005,-0.0000000000000000)        (2.43672807280457635E-006,-0.0000000000000000)         (1.01918094120701202E-005,0.0000000000000000)         (1.82311955976209099E-005,0.0000000000000000)         (2.19265210347261468E-005,0.0000000000000000)         (2.50491737084117196E-006,0.0000000000000000)         (6.49135632175729707E-006,0.0000000000000000)         (3.15885413408069154E-006,0.0000000000000000)        (1.09177866827341735E-006,-0.0000000000000000)         (1.57582641025690477E-006,0.0000000000000000)         (2.09041552036369509E-006,0.0000000000000000)         (3.24071428803082639E-007,0.0000000000000000)         (1.01518066241731673E-007,0.0000000000000000)         (4.82273908582565470E-007,0.0000000000000000)         (5.30696296187498331E-007,0.0000000000000000)         (5.49671691439884556E-007,0.0000000000000000)         (7.78731073235341368E-008,0.0000000000000000)         (9.59999066911711583E-008,0.0000000000000000)         (1.32722142521369493E-008,0.0000000000000000)        (4.49293777299109778E-008,-0.0000000000000000)        (1.03852088413447506E-008,-0.0000000000000000)         (8.67649158282954757E-009,0.0000000000000000)         (2.31192938408356679E-008,0.0000000000000000)         (1.39207109886296083E-008,0.0000000000000000)         (6.67464115064475169E-009,0.0000000000000000)         (5.45633010029270153E-009,0.0000000000000000)         (1.14566764481138792E-009,0.0000000000000000)        (3.97316182170172931E-010,-0.0000000000000000)        (3.06185169430316478E-009,-0.0000000000000000)         (2.55183180055337393E-010,0.0000000000000000)         (1.75066283225377975E-010,0.0000000000000000)         (5.38138423680034581E-010,0.0000000000000000)         (7.37082690864688488E-010,0.0000000000000000)         (7.83962053887691578E-010,0.0000000000000000)        (1.04359838589431184E-010,-0.0000000000000000)        (1.09791370380254041E-010,-0.0000000000000000)        (1.26937918286173392E-011,-0.0000000000000000)         (2.38239931826646449E-010,0.0000000000000000)        (1.92317591544076064E-011,-0.0000000000000000)        (1.50099368825963178E-011,-0.0000000000000000)        (2.12771290791372223E-012,-0.0000000000000000)         (3.10162368866708477E-012,0.0000000000000000)         (9.49075010015997320E-012,0.0000000000000000)         (1.24433596530246451E-012,0.0000000000000000)         (3.94879401682984024E-012,0.0000000000000000)        (3.22419353445685548E-013,-0.0000000000000000)         (6.51159463087093880E-013,0.0000000000000000)         (8.29935267800557197E-014,0.0000000000000000)         (1.28656939992433599E-013,0.0000000000000000)         (8.35794471270991997E-014,0.0000000000000000)         (3.23490562516943762E-013,0.0000000000000000)        (5.58936949729011697E-014,-0.0000000000000000)        (5.44685786329065982E-014,-0.0000000000000000)         (5.74375895198225105E-014,0.0000000000000000)        (4.32931627980094352E-014,-0.0000000000000000)        (3.83271073000001240E-015,-0.0000000000000000)         (7.33771352253519072E-015,0.0000000000000000)         (4.70221593261321635E-014,0.0000000000000000)         (1.13074801184856999E-014,0.0000000000000000)        (4.28975043707028958E-015,-0.0000000000000000)        (1.18017432691609937E-015,-0.0000000000000000)         (3.26596218306335666E-016,0.0000000000000000)         (2.91278324416590352E-016,0.0000000000000000)         (2.72767503529050912E-017,0.0000000000000000)        (1.39194431963095224E-015,-0.0000000000000000)         (1.18185089825262379E-016,0.0000000000000000)         (1.96491247108513458E-017,0.0000000000000000)        (1.18327932282851683E-016,-0.0000000000000000)         (9.05207891052036890E-016,0.0000000000000000)        (1.00496024896392963E-016,-0.0000000000000000)         (4.84922532932212951E-018,0.0000000000000000)        (5.52190784827337989E-018,-0.0000000000000000)         (6.10593750753599765E-018,0.0000000000000000)        (6.68590380510479856E-018,-0.0000000000000000)        (7.81541022186643584E-019,-0.0000000000000000)        (1.96003347799075102E-019,-0.0000000000000000)         (1.25957460346817745E-018,0.0000000000000000)        (3.71849487232216456E-018,-0.0000000000000000)         (3.09280556233894553E-022,0.0000000000000000)        (8.51788812713765091E-020,-0.0000000000000000)        (1.91579719912625563E-019,-0.0000000000000000)         (4.54166910105353208E-021,0.0000000000000000)        (1.10489447697226755E-019,-0.0000000000000000)        (7.75116807112658739E-021,-0.0000000000000000)         (3.97055874687315412E-019,0.0000000000000000)        (5.19227874362867974E-021,-0.0000000000000000)         (2.05645303405523195E-023,0.0000000000000000)         (3.78444115607830850E-020,0.0000000000000000)        (3.59713896123205300E-020,-0.0000000000000000)        (9.05543184736739120E-028,-0.0000000000000000)         (1.51050204491134523E-020,0.0000000000000000)         (2.81977612840328792E-021,0.0000000000000000)         (1.53433317248165333E-022,0.0000000000000000)         (6.17712747348248812E-022,0.0000000000000000)        (9.06230188573499699E-023,-0.0000000000000000)         (3.94438021674517704E-022,0.0000000000000000)               (0.0000000000000000,0.0000000000000000)        (1.12747091986589782E-023,-0.0000000000000000)        (3.51771314948467197E-041,-0.0000000000000000)         (1.71879099696537588E-021,0.0000000000000000)         (6.92063774019934974E-043,0.0000000000000000)         (1.31458949441025390E-023,0.0000000000000000)        (1.41155514839795821E-034,-0.0000000000000000)        (1.47256604779959925E-038,-0.0000000000000000)        (1.43742207635504016E-023,-0.0000000000000000)         (2.93519082998077459E-040,0.0000000000000000)        (1.03475951336646904E-025,-0.0000000000000000)         (7.17914854604730495E-028,0.0000000000000000)         (3.83718333204396724E-031,0.0000000000000000)         (1.22667572990051586E-025,0.0000000000000000)         (2.65745265348808980E-031,0.0000000000000000)         (1.61237188473056948E-029,0.0000000000000000)         (2.24837730683951323E-033,0.0000000000000000)         (2.31151927188094696E-028,0.0000000000000000)         (1.56869494416772706E-030,0.0000000000000000)
         200
 -0.37605938098040603      -0.37605938098041047      -0.37605938098041136      -0.37605938098041225      -0.86961236872173053      -0.86961236872173142      -0.86961236872173409       -1.1064339980775086       -1.1064339980775113       -1.1064339980775140       -1.3376584919569705       -1.3376584922353016       -1.3376584922353034       -1.4875558845669072       -1.5172556368028030       -1.5172556368028047       -1.6186350381889758       -1.6186350381889785       -1.9033223879281049       -1.9973091827703664       -1.9973727157403633       -2.0279988598518015       -2.0297211102586825       -2.0367416650188899       -2.1253049659637542       -2.1253050126142847       -2.2194356387178553       -2.2574508883600881       -2.2590741277879820       -2.4440472262978119       -2.4944343486487508       -2.5126828106874228       -2.5960227199492527       -2.6743996257356004       -2.7111985398704599       -2.7814015853333700       -2.8781550371773807       -2.9466884386902734       -2.9630473952104808       -2.9668450972639411       -3.1225784744695830       -3.1511290911884400       -3.1663390518943304       -3.2179739456822234       -3.2475534711456429       -3.2568677483104698       -3.4104954497535069       -3.4406852555407177       -3.4801298903566709       -3.5677520160585936       -3.6299666889979760       -3.6609192528636019       -3.6834223882691526       -3.7045746256129450       -3.7840837127648905       -3.8381765401305525       -3.9221564298853711       -3.9511010677690024       -4.0190291954773514       -4.0917344429268532       -4.1434014653214408       -4.2668758127521045       -4.3185676162581625       -4.3573082128795475       -4.4030611426063020       -4.5316091893558061       -4.5873632165374820       -4.6144273340577895       -4.7292472539197874       -4.7647555595131443       -4.8508951463521468       -4.9423669442231262       -5.0398093262253782       -5.0861259930798965       -5.2470076610654397       -5.2841361212673359       -5.3409441619518363       -5.4161338550408509       -5.4939002759228153       -5.5507984545898816       -5.6192385408077090       -5.7240524929310350       -5.8069499637025892       -5.8598180333264152       -5.9933249702996605       -6.0890750792444104       -6.1700729110156525       -6.2238091607351489       -6.3379380550992170       -6.3986931575075250       -6.4976957610611956       -6.5757152093683713       -6.6469752971543796       -6.7113232037290036       -6.8396071306966517       -6.9441481162208412       -6.9964101473595743       -7.0795039043889787       -7.1835945011600169       -7.2742604035232699       -7.3369631509359081       -7.4184312332651494       -7.4864849656894039       -7.5958754712020964       -7.7041485409425059       -7.7745369815186365       -7.8763926397848207       -7.9281749619746815       -8.0295564316867498       -8.1387065686143956       -8.2010385664603440       -8.2518755320679134       -8.3840684568922192       -8.4976548830517871       -8.6013247953557297       -8.6614717029735750       -8.7477060519024299       -8.7971716274866019       -8.8848458309041334       -8.9777709267691996       -9.0763489071220427       -9.1302535536530236       -9.2406649409728949       -9.3361862236934599       -9.4329034398338294       -9.5047397116698349       -9.5663486332416596       -9.6149358443147399       -9.7820545158709038       -9.8274459335979429       -9.9236257702482256       -9.9775776853867839       -10.110113559558208       -10.143681226164382       -10.238052705080008       -10.315381049306023       -10.419153705025479       -10.466929827712747       -10.581974345471938       -10.624475093428181       -10.704880912371880       -10.770583664282054       -10.845310653494632       -10.919804690994155       -11.010977400329850       -11.036852049163521       -11.131079272741502       -11.183653269270753       -11.238324533594451       -11.312349495841268       -11.394258865783623       -11.438336329006983       -11.494934526900412       -11.581023336458479       -11.623838070750416       -11.671759857315152       -11.736532406274623       -11.791992188036023       -11.883816901069697       -11.897425337046499       -11.958725535503415       -11.993394434202568       -12.040202345448357       -12.154262511536679       -12.165119550156025       -12.253353097462004       -12.323557195231633       -12.341107921700363       -12.382615493570146       -12.402698931286245       -12.517079638133442       -12.579448945321968       -12.617894558996273       -12.655069360059723       -12.812268733694754       -12.826232717088718       -12.863672021765659       -12.900719066465136       -13.099397488338401       -13.129688389059217       -13.131076832906921       -13.278308528337124       -13.326226655125618       -13.327571711524630       -13.369682219079069       -13.369682220108743       -13.424275081769068       -13.588771816107787       -13.588771816107805       -13.705663272180681       -13.705663272180693       -14.032150195482613       -14.032150195482618       -14.032153215558900       -14.128196299097299       -14.128196299097302       -14.128196683762575       -14.709676725619811       -14.709676725619824       -14.709676725619826     